REMARK  Name = 
REMARK  8 active torsions:
REMARK  status: ('A' for Active; 'I' for Inactive)
REMARK    1  A    between atoms: C_1  and  C_2
REMARK    2  A    between atoms: C_5  and  C_6
REMARK    3  A    between atoms: N_14  and  C_15
REMARK    4  A    between atoms: C_15  and  C_16
REMARK    5  A    between atoms: C_16  and  C_17
REMARK    6  A    between atoms: C_17  and  N_18
REMARK    7  A    between atoms: C_25  and  O_26
REMARK    8  A    between atoms: O_26  and  C_27
REMARK                            x       y       z     vdW  Elec       q    Type
REMARK                         _______ _______ _______ _____ _____    ______ ____
ROOT
ATOM      1  C   UNL     1      -3.306  -0.151  -0.022  0.00  0.00    +0.000 A 
ATOM      2  N   UNL     1      -4.028  -0.627   0.980  0.00  0.00    +0.000 NA
ATOM      3  C   UNL     1      -5.341  -0.488   0.626  0.00  0.00    +0.000 A 
ATOM      4  C   UNL     1      -6.497  -0.823   1.354  0.00  0.00    +0.000 A 
ATOM      5  C   UNL     1      -7.756  -0.562   0.808  0.00  0.00    +0.000 A 
ATOM      6  C   UNL     1      -7.870  -0.015  -0.464  0.00  0.00    +0.000 A 
ATOM      7  C   UNL     1      -6.731   0.278  -1.220  0.00  0.00    +0.000 A 
ATOM      8  C   UNL     1      -5.465   0.081  -0.640  0.00  0.00    +0.000 A 
ATOM      9  N   UNL     1      -4.162   0.357  -1.011  0.00  0.00    +0.000 N 
ENDROOT
BRANCH   1  14
ATOM     10  C   UNL     1       2.524   0.192   0.269  0.00  0.00    +0.000 C 
ATOM     11  C   UNL     1       1.034   0.095   0.086  0.00  0.00    +0.000 A 
ATOM     12  C   UNL     1       0.249   0.083   1.260  0.00  0.00    +0.000 A 
ATOM     13  C   UNL     1      -1.150  -0.001   1.214  0.00  0.00    +0.000 A 
ATOM     14  C   UNL     1      -1.822  -0.093  -0.006  0.00  0.00    +0.000 A 
ATOM     15  C   UNL     1      -1.027  -0.159  -1.154  0.00  0.00    +0.000 A 
ATOM     16  C   UNL     1       0.377  -0.018  -1.141  0.00  0.00    +0.000 A 
BRANCH  16  17
ATOM     17  O   UNL     1       0.864  -0.019  -2.418  0.00  0.00    +0.000 OA
ATOM     18  C   UNL     1       2.236   0.178  -2.693  0.00  0.00    +0.000 C 
ENDBRANCH  16  17
ENDBRANCH   1  14
BRANCH   9  19
ATOM     19  C   UNL     1      -3.690   1.125  -2.145  0.00  0.00    +0.000 C 
BRANCH  19  20
ATOM     20  C   UNL     1      -4.639   1.720  -3.170  0.00  0.00    +0.000 C 
BRANCH  20  21
ATOM     21  C   UNL     1      -5.450   2.916  -2.675  0.00  0.00    +0.000 C 
BRANCH  21  22
ATOM     22  N   UNL     1      -6.445   3.274  -3.701  0.00  0.00    +0.000 NA
ATOM     23  C   UNL     1      -5.829   3.896  -4.894  0.00  0.00    +0.000 C 
ATOM     24  C   UNL     1      -5.228   5.278  -4.591  0.00  0.00    +0.000 C 
ATOM     25  O   UNL     1      -6.228   6.168  -4.081  0.00  0.00    +0.000 OA
ATOM     26  C   UNL     1      -6.873   5.628  -2.918  0.00  0.00    +0.000 C 
ATOM     27  C   UNL     1      -7.448   4.225  -3.175  0.00  0.00    +0.000 C 
ENDBRANCH  21  22
ENDBRANCH  20  21
ENDBRANCH  19  20
ENDBRANCH   9  19
TORSDOF 6
