REMARK  Name = 
REMARK  4 active torsions:
REMARK  status: ('A' for Active; 'I' for Inactive)
REMARK    1  A    between atoms: C_1  and  C_2
REMARK    2  A    between atoms: C_2  and  C_3
REMARK    3  A    between atoms: N_5  and  C_6
REMARK    4  A    between atoms: N_15  and  C_16
REMARK                            x       y       z     vdW  Elec       q    Type
REMARK                         _______ _______ _______ _____ _____    ______ ____
ROOT
ATOM      1  C   UNL     1       4.079   2.651  -0.737  0.00  0.00    +0.000 C 
ATOM      2  C   UNL     1       4.710   1.886   0.482  0.00  0.00    +0.000 C 
ATOM      3  N   UNL     1       4.001   2.131   1.761  0.00  0.00    +0.000 NA
ATOM      4  C   UNL     1       4.616   1.376   2.849  0.00  0.00    +0.000 C 
ATOM      5  C   UNL     1       2.584   1.740   1.600  0.00  0.00    +0.000 C 
ATOM      6  C   UNL     1       1.911   2.509   0.449  0.00  0.00    +0.000 C 
ATOM      7  N   UNL     1       2.650   2.288  -0.804  0.00  0.00    +0.000 N 
ATOM      8  C   UNL     1       1.884   2.099  -1.924  0.00  0.00    +0.000 A 
ATOM      9  N   UNL     1       0.750   1.408  -1.756  0.00  0.00    +0.000 NA
ATOM     10  C   UNL     1       0.040   1.101  -2.848  0.00  0.00    +0.000 A 
ATOM     11  C   UNL     1       0.410   1.486  -4.116  0.00  0.00    +0.000 A 
ATOM     12  C   UNL     1      -0.278   1.183  -5.290  0.00  0.00    +0.000 A 
ATOM     13  N   UNL     1      -1.527   0.514  -5.220  0.00  0.00    +0.000 N 
ATOM     14  N   UNL     1       0.214   1.539  -6.487  0.00  0.00    +0.000 NA
ATOM     15  C   UNL     1       1.365   2.216  -6.477  0.00  0.00    +0.000 A 
ATOM     16  N   UNL     1       2.062   2.568  -5.394  0.00  0.00    +0.000 NA
ATOM     17  C   UNL     1       1.589   2.196  -4.210  0.00  0.00    +0.000 A 
ATOM     18  N   UNL     1       2.297   2.500  -3.129  0.00  0.00    +0.000 NA
ATOM     19  H   UNL     1      -2.205   1.115  -4.757  0.00  0.00    +0.000 HD
ENDROOT
BRANCH  13  20
ATOM     20  C   UNL     1      -2.128  -0.155  -6.308  0.00  0.00    +0.000 A 
ATOM     21  C   UNL     1      -1.393  -1.044  -7.101  0.00  0.00    +0.000 A 
ATOM     22  C   UNL     1      -1.988  -1.670  -8.199  0.00  0.00    +0.000 A 
ATOM     23  C   UNL     1      -3.323  -1.414  -8.517  0.00  0.00    +0.000 A 
ATOM     24  C   UNL     1      -4.076  -0.561  -7.712  0.00  0.00    +0.000 A 
ATOM     25  C   UNL     1      -3.479   0.048  -6.613  0.00  0.00    +0.000 A 
ATOM     26  F   UNL     1      -4.210   0.872  -5.843  0.00  0.00    +0.000 F 
ENDBRANCH  13  20
BRANCH   1  28
ATOM     27  C   UNL     1       5.039   0.966  -2.473  0.00  0.00    +0.000 C 
ATOM     28  C   UNL     1       4.939   2.409  -1.993  0.00  0.00    +0.000 C 
ENDBRANCH   1  28
TORSDOF 2
