REMARK  Name = 
REMARK  8 active torsions:
REMARK  status: ('A' for Active; 'I' for Inactive)
REMARK    1  A    between atoms: C_1  and  O_2
REMARK    2  A    between atoms: O_2  and  C_3
REMARK    3  A    between atoms: C_7  and  C_8
REMARK    4  A    between atoms: N_16  and  C_17
REMARK    5  A    between atoms: C_17  and  C_18
REMARK    6  A    between atoms: C_18  and  O_19
REMARK    7  A    between atoms: C_22  and  O_23
REMARK    8  A    between atoms: O_23  and  C_24
REMARK                            x       y       z     vdW  Elec       q    Type
REMARK                         _______ _______ _______ _____ _____    ______ ____
ROOT
ATOM      1  C   UNL     1       3.102   0.249   1.159  0.00  0.00    +0.000 A 
ATOM      2  C   UNL     1       4.077   1.270   1.182  0.00  0.00    +0.000 A 
ATOM      3  C   UNL     1       4.705   1.677   2.350  0.00  0.00    +0.000 A 
ATOM      4  N   UNL     1       5.677   2.598   2.276  0.00  0.00    +0.000 NA
ATOM      5  C   UNL     1       6.278   2.950   3.427  0.00  0.00    +0.000 A 
ATOM      6  N   UNL     1       5.939   2.490   4.643  0.00  0.00    +0.000 NA
ATOM      7  C   UNL     1       4.940   1.602   4.705  0.00  0.00    +0.000 A 
ATOM      8  N   UNL     1       4.478   1.164   5.963  0.00  0.00    +0.000 N 
ATOM      9  C   UNL     1       4.296   1.122   3.553  0.00  0.00    +0.000 A 
ATOM     10  C   UNL     1       3.259   0.163   3.557  0.00  0.00    +0.000 A 
ATOM     11  C   UNL     1       2.669  -0.294   2.374  0.00  0.00    +0.000 A 
ATOM     12  H   UNL     1       4.553   0.153   6.033  0.00  0.00    +0.000 HD
ENDROOT
BRANCH   5  13
ATOM     13  C   UNL     1       7.358   3.947   3.350  0.00  0.00    +0.000 A 
ATOM     14  C   UNL     1       7.328   4.975   2.391  0.00  0.00    +0.000 A 
ATOM     15  C   UNL     1       8.324   5.956   2.343  0.00  0.00    +0.000 A 
ATOM     16  C   UNL     1       9.383   5.915   3.244  0.00  0.00    +0.000 A 
ATOM     17  C   UNL     1       9.454   4.893   4.186  0.00  0.00    +0.000 A 
ATOM     18  C   UNL     1       8.447   3.920   4.240  0.00  0.00    +0.000 A 
ENDBRANCH   5  13
BRANCH   1  20
ATOM     19  C   UNL     1       3.411  -0.111  -1.163  0.00  0.00    +0.000 C 
ATOM     20  O   UNL     1       2.568  -0.205  -0.013  0.00  0.00    +0.000 OA
ENDBRANCH   1  20
BRANCH  11  21
ATOM     21  O   UNL     1       1.740  -1.259   2.625  0.00  0.00    +0.000 OA
ATOM     22  C   UNL     1       1.015  -1.845   1.561  0.00  0.00    +0.000 C 
ENDBRANCH  11  21
BRANCH   8  23
ATOM     23  C   UNL     1       5.007   1.857   7.139  0.00  0.00    +0.000 C 
BRANCH  23  24
ATOM     24  C   UNL     1       4.289   3.204   7.317  0.00  0.00    +0.000 C 
BRANCH  24  25
ATOM     25  O   UNL     1       2.874   2.999   7.304  0.00  0.00    +0.000 OA
ATOM     26  H   UNL     1       2.726   2.413   6.533  0.00  0.00    +0.000 HD
ENDBRANCH  24  25
ENDBRANCH  23  24
ENDBRANCH   8  23
TORSDOF 6
