REMARK  Name = 
REMARK  5 active torsions:
REMARK  status: ('A' for Active; 'I' for Inactive)
REMARK    1  A    between atoms: C_1  and  C_2
REMARK    2  A    between atoms: C_2  and  C_3
REMARK    3  A    between atoms: C_2  and  C_4
REMARK    4  A    between atoms: C_2  and  C_5
REMARK    5  A    between atoms: C_10  and  C_11
REMARK                            x       y       z     vdW  Elec       q    Type
REMARK                         _______ _______ _______ _____ _____    ______ ____
ROOT
ATOM      1  C   UNL     1       2.998  -1.886   2.095  0.00  0.00    +0.000 C 
ATOM      2  C   UNL     1       1.978  -2.812   2.610  0.00  0.00    +0.000 C 
ATOM      3  C   UNL     1       1.531  -2.830   3.864  0.00  0.00    +0.000 C 
ATOM      4  C   UNL     1       2.658  -2.518   4.741  0.00  0.00    +0.000 C 
ATOM      5  N   UNL     1       2.859  -3.544   5.524  0.00  0.00    +0.000 NA
ATOM      6  C   UNL     1       4.198  -3.726   5.771  0.00  0.00    +0.000 C 
ATOM      7  C   UNL     1       5.071  -2.732   5.966  0.00  0.00    +0.000 C 
ATOM      8  C   UNL     1       5.929  -2.928   7.148  0.00  0.00    +0.000 C 
ATOM      9  C   UNL     1       5.786  -2.024   8.128  0.00  0.00    +0.000 C 
ATOM     10  C   UNL     1       5.075  -0.771   7.884  0.00  0.00    +0.000 C 
ATOM     11  C   UNL     1       4.554  -0.451   6.684  0.00  0.00    +0.000 C 
ATOM     12  C   UNL     1       4.612  -1.387   5.526  0.00  0.00    +0.000 C 
ATOM     13  N   UNL     1       3.586  -1.475   4.491  0.00  0.00    +0.000 N 
ATOM     14  C   UNL     1       3.762  -1.252   3.053  0.00  0.00    +0.000 C 
ENDROOT
BRANCH   6  15
ATOM     15  C   UNL     1       4.746  -5.021   5.368  0.00  0.00    +0.000 A 
ATOM     16  C   UNL     1       4.014  -6.193   5.567  0.00  0.00    +0.000 A 
ATOM     17  C   UNL     1       4.578  -7.408   5.207  0.00  0.00    +0.000 A 
ATOM     18  C   UNL     1       5.852  -7.431   4.639  0.00  0.00    +0.000 A 
ATOM     19  F   UNL     1       6.429  -8.611   4.385  0.00  0.00    +0.000 F 
ATOM     20  C   UNL     1       6.546  -6.270   4.342  0.00  0.00    +0.000 A 
ATOM     21  C   UNL     1       5.971  -5.059   4.672  0.00  0.00    +0.000 A 
ENDBRANCH   6  15
BRANCH   1  23
ATOM     22  C   UNL     1       1.385  -1.719   0.081  0.00  0.00    +0.000 C 
ATOM     23  C   UNL     1       2.891  -1.858   0.514  0.00  0.00    +0.000 C 
ATOM     24  C   UNL     1       3.413  -3.191  -0.108  0.00  0.00    +0.000 C 
ATOM     25  C   UNL     1       3.608  -0.730  -0.253  0.00  0.00    +0.000 C 
ENDBRANCH   1  23
TORSDOF 2
