REMARK  Name = 
REMARK  3 active torsions:
REMARK  status: ('A' for Active; 'I' for Inactive)
REMARK    1  A    between atoms: C_1  and  N_2
REMARK    2  A    between atoms: N_2  and  C_3
REMARK    3  A    between atoms: N_9  and  C_10
REMARK                            x       y       z     vdW  Elec       q    Type
REMARK                         _______ _______ _______ _____ _____    ______ ____
ROOT
ATOM      1  C   UNL     1       1.641   0.492   0.565  0.00  0.00    +0.000 C 
ATOM      2  N   UNL     1       2.597  -0.322  -0.164  0.00  0.00    +0.000 N 
ATOM      3  C   UNL     1       3.352  -1.324   0.569  0.00  0.00    +0.000 C 
ATOM      4  C   UNL     1       3.287   0.341  -1.174  0.00  0.00    +0.000 A 
ATOM      5  N   UNL     1       2.726   1.424  -1.733  0.00  0.00    +0.000 NA
ATOM      6  C   UNL     1       3.411   2.042  -2.706  0.00  0.00    +0.000 A 
ATOM      7  C   UNL     1       4.663   1.636  -3.130  0.00  0.00    +0.000 A 
ATOM      8  C   UNL     1       5.451   2.233  -4.121  0.00  0.00    +0.000 A 
ATOM      9  N   UNL     1       5.030   3.439  -4.741  0.00  0.00    +0.000 N 
ATOM     10  N   UNL     1       6.624   1.695  -4.485  0.00  0.00    +0.000 NA
ATOM     11  C   UNL     1       7.004   0.591  -3.843  0.00  0.00    +0.000 A 
ATOM     12  N   UNL     1       6.326  -0.018  -2.869  0.00  0.00    +0.000 NA
ATOM     13  C   UNL     1       5.156   0.498  -2.522  0.00  0.00    +0.000 A 
ATOM     14  N   UNL     1       4.479  -0.128  -1.565  0.00  0.00    +0.000 NA
ATOM     15  H   UNL     1       5.004   4.189  -4.050  0.00  0.00    +0.000 HD
ENDROOT
BRANCH   9  16
ATOM     16  C   UNL     1       5.588   3.921  -5.955  0.00  0.00    +0.000 A 
ATOM     17  C   UNL     1       5.714   3.081  -7.070  0.00  0.00    +0.000 A 
ATOM     18  C   UNL     1       6.308   3.542  -8.247  0.00  0.00    +0.000 A 
ATOM     19  C   UNL     1       6.772   4.855  -8.332  0.00  0.00    +0.000 A 
ATOM     20  C   UNL     1       6.621   5.714  -7.244  0.00  0.00    +0.000 A 
ATOM     21  C   UNL     1       6.024   5.245  -6.074  0.00  0.00    +0.000 A 
ATOM     22  F   UNL     1       5.894   6.079  -5.030  0.00  0.00    +0.000 F 
ENDBRANCH   9  16
TORSDOF 1
