REMARK  Name = 
REMARK  1 active torsions:
REMARK  status: ('A' for Active; 'I' for Inactive)
REMARK    1  A    between atoms: C_2  and  C_15
REMARK                            x       y       z     vdW  Elec       q    Type
REMARK                         _______ _______ _______ _____ _____    ______ ____
ROOT
ATOM      1  O   UNL     1       1.038  -0.453   0.062  0.00  0.00    +0.000 OA
ATOM      2  C   UNL     1       2.208  -0.096   0.102  0.00  0.00    +0.000 C 
ATOM      3  N   UNL     1       2.791   0.720   1.043  0.00  0.00    +0.000 N 
ATOM      4  C   UNL     1       2.091   1.231   2.134  0.00  0.00    +0.000 A 
ATOM      5  N   UNL     1       0.929   0.683   2.491  0.00  0.00    +0.000 NA
ATOM      6  C   UNL     1       0.253   1.275   3.477  0.00  0.00    +0.000 A 
ATOM      7  C   UNL     1       0.705   2.410   4.115  0.00  0.00    +0.000 A 
ATOM      8  C   UNL     1       0.023   3.113   5.106  0.00  0.00    +0.000 A 
ATOM      9  N   UNL     1      -1.223   2.703   5.587  0.00  0.00    +0.000 N 
ATOM     10  N   UNL     1       0.537   4.201   5.679  0.00  0.00    +0.000 NA
ATOM     11  C   UNL     1       1.742   4.574   5.233  0.00  0.00    +0.000 A 
ATOM     12  N   UNL     1       2.464   3.964   4.283  0.00  0.00    +0.000 NA
ATOM     13  C   UNL     1       1.944   2.880   3.717  0.00  0.00    +0.000 A 
ATOM     14  N   UNL     1       2.643   2.283   2.748  0.00  0.00    +0.000 NA
ATOM     15  H   UNL     1       3.688   1.150   0.885  0.00  0.00    +0.000 HD
ATOM     16  H   UNL     1      -1.910   2.578   4.852  0.00  0.00    +0.000 HD
ATOM     17  H   UNL     1      -1.535   3.390   6.270  0.00  0.00    +0.000 HD
ENDROOT
BRANCH   2  18
ATOM     18  C   UNL     1       3.068  -0.528  -1.026  0.00  0.00    +0.000 A 
ATOM     19  C   UNL     1       2.476  -0.604  -2.298  0.00  0.00    +0.000 A 
ATOM     20  C   UNL     1       3.201  -1.096  -3.381  0.00  0.00    +0.000 A 
ATOM     21  C   UNL     1       4.510  -1.521  -3.184  0.00  0.00    +0.000 A 
ATOM     22  F   UNL     1       5.200  -2.021  -4.217  0.00  0.00    +0.000 F 
ATOM     23  C   UNL     1       5.108  -1.450  -1.928  0.00  0.00    +0.000 A 
ATOM     24  C   UNL     1       4.389  -0.948  -0.838  0.00  0.00    +0.000 A 
ENDBRANCH   2  18
TORSDOF 1
