REMARK  Name = 
REMARK  3 active torsions:
REMARK  status: ('A' for Active; 'I' for Inactive)
REMARK    1  A    between atoms: C_1  and  N_2
REMARK    2  A    between atoms: N_2  and  C_3
REMARK    3  A    between atoms: N_9  and  C_10
REMARK                            x       y       z     vdW  Elec       q    Type
REMARK                         _______ _______ _______ _____ _____    ______ ____
ROOT
ATOM      1  C   UNL     1       1.618   0.504   0.602  0.00  0.00    +0.000 C 
ATOM      2  N   UNL     1       2.571  -0.361  -0.068  0.00  0.00    +0.000 N 
ATOM      3  C   UNL     1       3.335  -1.301   0.734  0.00  0.00    +0.000 C 
ATOM      4  C   UNL     1       3.250   0.221  -1.133  0.00  0.00    +0.000 A 
ATOM      5  N   UNL     1       2.683   1.259  -1.764  0.00  0.00    +0.000 NA
ATOM      6  C   UNL     1       3.354   1.798  -2.792  0.00  0.00    +0.000 A 
ATOM      7  C   UNL     1       4.597   1.354  -3.205  0.00  0.00    +0.000 A 
ATOM      8  C   UNL     1       5.369   1.871  -4.251  0.00  0.00    +0.000 A 
ATOM      9  N   UNL     1       4.935   3.028  -4.956  0.00  0.00    +0.000 N 
ATOM     10  N   UNL     1       6.536   1.307  -4.593  0.00  0.00    +0.000 NA
ATOM     11  C   UNL     1       6.926   0.256  -3.872  0.00  0.00    +0.000 A 
ATOM     12  N   UNL     1       6.264  -0.276  -2.844  0.00  0.00    +0.000 NA
ATOM     13  C   UNL     1       5.098   0.266  -2.517  0.00  0.00    +0.000 A 
ATOM     14  N   UNL     1       4.437  -0.280  -1.503  0.00  0.00    +0.000 NA
ATOM     15  H   UNL     1       4.921   3.826  -4.323  0.00  0.00    +0.000 HD
ENDROOT
BRANCH   9  16
ATOM     16  C   UNL     1       5.468   3.414  -6.213  0.00  0.00    +0.000 A 
ATOM     17  C   UNL     1       5.579   2.491  -7.261  0.00  0.00    +0.000 A 
ATOM     18  C   UNL     1       6.149   2.861  -8.480  0.00  0.00    +0.000 A 
ATOM     19  C   UNL     1       6.606   4.164  -8.672  0.00  0.00    +0.000 A 
ATOM     20  C   UNL     1       6.471   5.105  -7.652  0.00  0.00    +0.000 A 
ATOM     21  C   UNL     1       5.896   4.728  -6.439  0.00  0.00    +0.000 A 
ATOM     22  F   UNL     1       5.779   5.639  -5.461  0.00  0.00    +0.000 F 
ENDBRANCH   9  16
TORSDOF 1
