REMARK  Name = 
REMARK  4 active torsions:
REMARK  status: ('A' for Active; 'I' for Inactive)
REMARK    1  A    between atoms: C_1  and  C_2
REMARK    2  A    between atoms: C_2  and  C_3
REMARK    3  A    between atoms: N_5  and  C_6
REMARK    4  A    between atoms: N_15  and  C_16
REMARK                            x       y       z     vdW  Elec       q    Type
REMARK                         _______ _______ _______ _____ _____    ______ ____
ROOT
ATOM      1  C   UNL     1       3.740   0.391   2.866  0.00  0.00    +0.000 C 
ATOM      2  C   UNL     1       4.562  -0.782   2.214  0.00  0.00    +0.000 C 
ATOM      3  N   UNL     1       3.836  -2.071   2.121  0.00  0.00    +0.000 NA
ATOM      4  C   UNL     1       4.651  -3.063   1.421  0.00  0.00    +0.000 C 
ATOM      5  C   UNL     1       2.572  -1.847   1.390  0.00  0.00    +0.000 C 
ATOM      6  C   UNL     1       1.701  -0.790   2.090  0.00  0.00    +0.000 C 
ATOM      7  N   UNL     1       2.435   0.483   2.178  0.00  0.00    +0.000 N 
ATOM      8  C   UNL     1       1.680   1.613   1.984  0.00  0.00    +0.000 A 
ATOM      9  N   UNL     1       0.733   1.522   1.045  0.00  0.00    +0.000 NA
ATOM     10  C   UNL     1       0.052   2.629   0.730  0.00  0.00    +0.000 A 
ATOM     11  C   UNL     1       0.261   3.844   1.345  0.00  0.00    +0.000 A 
ATOM     12  C   UNL     1      -0.426   5.028   1.062  0.00  0.00    +0.000 A 
ATOM     13  N   UNL     1      -1.466   4.997   0.099  0.00  0.00    +0.000 N 
ATOM     14  N   UNL     1      -0.094   6.172   1.673  0.00  0.00    +0.000 NA
ATOM     15  C   UNL     1       0.890   6.100   2.574  0.00  0.00    +0.000 A 
ATOM     16  N   UNL     1       1.566   4.997   2.924  0.00  0.00    +0.000 NA
ATOM     17  C   UNL     1       1.255   3.862   2.303  0.00  0.00    +0.000 A 
ATOM     18  N   UNL     1       1.941   2.763   2.615  0.00  0.00    +0.000 NA
ATOM     19  H   UNL     1      -2.136   4.262   0.310  0.00  0.00    +0.000 HD
ENDROOT
BRANCH  13  20
ATOM     20  C   UNL     1      -2.120   6.067  -0.549  0.00  0.00    +0.000 A 
ATOM     21  C   UNL     1      -1.535   7.322  -0.735  0.00  0.00    +0.000 A 
ATOM     22  C   UNL     1      -2.215   8.333  -1.421  0.00  0.00    +0.000 A 
ATOM     23  C   UNL     1      -3.476   8.091  -1.966  0.00  0.00    +0.000 A 
ATOM     24  C   UNL     1      -4.052   6.830  -1.842  0.00  0.00    +0.000 A 
ATOM     25  C   UNL     1      -3.369   5.835  -1.149  0.00  0.00    +0.000 A 
ATOM     26  F   UNL     1      -3.928   4.617  -1.046  0.00  0.00    +0.000 F 
ENDBRANCH  13  20
BRANCH   1  28
ATOM     27  C   UNL     1       4.979   2.161   1.440  0.00  0.00    +0.000 C 
ATOM     28  C   UNL     1       4.612   1.664   2.835  0.00  0.00    +0.000 C 
ENDBRANCH   1  28
TORSDOF 2
