REMARK  Name = 
REMARK  8 active torsions:
REMARK  status: ('A' for Active; 'I' for Inactive)
REMARK    1  A    between atoms: C_1  and  O_2
REMARK    2  A    between atoms: O_2  and  C_3
REMARK    3  A    between atoms: C_7  and  C_8
REMARK    4  A    between atoms: N_16  and  C_17
REMARK    5  A    between atoms: C_17  and  C_18
REMARK    6  A    between atoms: C_18  and  O_19
REMARK    7  A    between atoms: C_22  and  O_23
REMARK    8  A    between atoms: O_23  and  C_24
REMARK                            x       y       z     vdW  Elec       q    Type
REMARK                         _______ _______ _______ _____ _____    ______ ____
ROOT
ATOM      1  C   UNL     1       3.076  -0.614   1.018  0.00  0.00    +0.000 A 
ATOM      2  C   UNL     1       4.159  -0.245   1.834  0.00  0.00    +0.000 A 
ATOM      3  C   UNL     1       4.726  -1.115   2.750  0.00  0.00    +0.000 A 
ATOM      4  N   UNL     1       5.680  -0.646   3.557  0.00  0.00    +0.000 NA
ATOM      5  C   UNL     1       6.154  -1.479   4.496  0.00  0.00    +0.000 A 
ATOM      6  N   UNL     1       5.741  -2.745   4.677  0.00  0.00    +0.000 NA
ATOM      7  C   UNL     1       4.782  -3.205   3.858  0.00  0.00    +0.000 A 
ATOM      8  N   UNL     1       4.246  -4.489   4.088  0.00  0.00    +0.000 N 
ATOM      9  C   UNL     1       4.237  -2.417   2.832  0.00  0.00    +0.000 A 
ATOM     10  C   UNL     1       3.210  -2.827   1.949  0.00  0.00    +0.000 A 
ATOM     11  C   UNL     1       2.637  -1.941   1.033  0.00  0.00    +0.000 A 
ATOM     12  H   UNL     1       4.419  -5.075   3.275  0.00  0.00    +0.000 HD
ENDROOT
BRANCH   5  13
ATOM     13  C   UNL     1       7.129  -0.938   5.455  0.00  0.00    +0.000 A 
ATOM     14  C   UNL     1       7.068   0.405   5.872  0.00  0.00    +0.000 A 
ATOM     15  C   UNL     1       7.956   0.912   6.825  0.00  0.00    +0.000 A 
ATOM     16  C   UNL     1       8.936   0.088   7.370  0.00  0.00    +0.000 A 
ATOM     17  C   UNL     1       9.032  -1.239   6.959  0.00  0.00    +0.000 A 
ATOM     18  C   UNL     1       8.135  -1.747   6.014  0.00  0.00    +0.000 A 
ENDBRANCH   5  13
BRANCH   1  20
ATOM     19  C   UNL     1       2.398   1.630   0.738  0.00  0.00    +0.000 C 
ATOM     20  O   UNL     1       2.428   0.297   0.227  0.00  0.00    +0.000 OA
ENDBRANCH   1  20
BRANCH  11  21
ATOM     21  O   UNL     1       1.632  -2.508   0.300  0.00  0.00    +0.000 OA
ATOM     22  C   UNL     1       1.332  -1.929  -0.963  0.00  0.00    +0.000 C 
ENDBRANCH  11  21
BRANCH   8  23
ATOM     23  C   UNL     1       4.624  -5.138   5.351  0.00  0.00    +0.000 C 
BRANCH  23  24
ATOM     24  C   UNL     1       3.814  -4.542   6.512  0.00  0.00    +0.000 C 
BRANCH  24  25
ATOM     25  O   UNL     1       2.419  -4.582   6.198  0.00  0.00    +0.000 OA
ATOM     26  H   UNL     1       2.369  -4.247   5.280  0.00  0.00    +0.000 HD
ENDBRANCH  24  25
ENDBRANCH  23  24
ENDBRANCH   8  23
TORSDOF 6
