REMARK  Name = 
REMARK  5 active torsions:
REMARK  status: ('A' for Active; 'I' for Inactive)
REMARK    1  A    between atoms: C_1  and  C_2
REMARK    2  A    between atoms: C_2  and  C_3
REMARK    3  A    between atoms: C_2  and  C_4
REMARK    4  A    between atoms: C_2  and  C_5
REMARK    5  A    between atoms: C_10  and  C_11
REMARK                            x       y       z     vdW  Elec       q    Type
REMARK                         _______ _______ _______ _____ _____    ______ ____
ROOT
ATOM      1  C   UNL     1       3.524   0.863   2.272  0.00  0.00    +0.000 C 
ATOM      2  C   UNL     1       3.515   0.340   3.652  0.00  0.00    +0.000 C 
ATOM      3  C   UNL     1       3.733   1.078   4.727  0.00  0.00    +0.000 C 
ATOM      4  C   UNL     1       4.372   2.273   4.241  0.00  0.00    +0.000 C 
ATOM      5  N   UNL     1       5.641   2.263   4.497  0.00  0.00    +0.000 NA
ATOM      6  C   UNL     1       6.219   3.481   4.521  0.00  0.00    +0.000 C 
ATOM      7  C   UNL     1       5.544   4.623   4.237  0.00  0.00    +0.000 C 
ATOM      8  C   UNL     1       5.808   5.801   5.092  0.00  0.00    +0.000 C 
ATOM      9  C   UNL     1       4.829   6.686   5.312  0.00  0.00    +0.000 C 
ATOM     10  C   UNL     1       3.628   6.666   4.497  0.00  0.00    +0.000 C 
ATOM     11  C   UNL     1       3.345   5.673   3.617  0.00  0.00    +0.000 C 
ATOM     12  C   UNL     1       4.241   4.489   3.446  0.00  0.00    +0.000 C 
ATOM     13  N   UNL     1       3.746   3.123   3.327  0.00  0.00    +0.000 N 
ATOM     14  C   UNL     1       3.503   2.265   2.148  0.00  0.00    +0.000 C 
ENDROOT
BRANCH   6  15
ATOM     15  C   UNL     1       7.246   3.398   5.540  0.00  0.00    +0.000 A 
ATOM     16  C   UNL     1       6.753   3.397   6.858  0.00  0.00    +0.000 A 
ATOM     17  C   UNL     1       7.642   3.407   7.890  0.00  0.00    +0.000 A 
ATOM     18  C   UNL     1       9.004   3.262   7.593  0.00  0.00    +0.000 A 
ATOM     19  F   UNL     1       9.911   3.297   8.586  0.00  0.00    +0.000 F 
ATOM     20  C   UNL     1       9.484   3.122   6.287  0.00  0.00    +0.000 A 
ATOM     21  C   UNL     1       8.584   3.185   5.233  0.00  0.00    +0.000 A 
ENDBRANCH   6  15
BRANCH   1  23
ATOM     22  C   UNL     1       2.712  -1.577   1.658  0.00  0.00    +0.000 C 
ATOM     23  C   UNL     1       3.664  -0.371   1.286  0.00  0.00    +0.000 C 
ATOM     24  C   UNL     1       5.121  -0.939   1.379  0.00  0.00    +0.000 C 
ATOM     25  C   UNL     1       3.391  -0.123  -0.203  0.00  0.00    +0.000 C 
ENDBRANCH   1  23
TORSDOF 2
