REMARK  Name = 
REMARK  8 active torsions:
REMARK  status: ('A' for Active; 'I' for Inactive)
REMARK    1  A    between atoms: C_1  and  C_2
REMARK    2  A    between atoms: C_5  and  C_6
REMARK    3  A    between atoms: N_14  and  C_15
REMARK    4  A    between atoms: C_15  and  C_16
REMARK    5  A    between atoms: C_16  and  C_17
REMARK    6  A    between atoms: C_17  and  N_18
REMARK    7  A    between atoms: C_25  and  O_26
REMARK    8  A    between atoms: O_26  and  C_27
REMARK                            x       y       z     vdW  Elec       q    Type
REMARK                         _______ _______ _______ _____ _____    ______ ____
ROOT
ATOM      1  C   UNL     1      -3.302  -0.141  -0.023  0.00  0.00    +0.000 A 
ATOM      2  N   UNL     1      -4.025  -0.614   0.983  0.00  0.00    +0.000 NA
ATOM      3  C   UNL     1      -5.340  -0.473   0.620  0.00  0.00    +0.000 A 
ATOM      4  C   UNL     1      -6.495  -0.813   1.352  0.00  0.00    +0.000 A 
ATOM      5  C   UNL     1      -7.756  -0.541   0.804  0.00  0.00    +0.000 A 
ATOM      6  C   UNL     1      -7.869   0.007  -0.468  0.00  0.00    +0.000 A 
ATOM      7  C   UNL     1      -6.727   0.299  -1.222  0.00  0.00    +0.000 A 
ATOM      8  C   UNL     1      -5.461   0.095  -0.643  0.00  0.00    +0.000 A 
ATOM      9  N   UNL     1      -4.156   0.370  -1.012  0.00  0.00    +0.000 N 
ENDROOT
BRANCH   1  14
ATOM     10  C   UNL     1       2.527   0.201   0.250  0.00  0.00    +0.000 C 
ATOM     11  C   UNL     1       1.040   0.097   0.075  0.00  0.00    +0.000 A 
ATOM     12  C   UNL     1       0.255   0.084   1.249  0.00  0.00    +0.000 A 
ATOM     13  C   UNL     1      -1.144   0.004   1.208  0.00  0.00    +0.000 A 
ATOM     14  C   UNL     1      -1.819  -0.089  -0.008  0.00  0.00    +0.000 A 
ATOM     15  C   UNL     1      -1.024  -0.150  -1.159  0.00  0.00    +0.000 A 
ATOM     16  C   UNL     1       0.379  -0.012  -1.150  0.00  0.00    +0.000 A 
BRANCH  16  17
ATOM     17  O   UNL     1       0.860  -0.011  -2.428  0.00  0.00    +0.000 OA
ATOM     18  C   UNL     1       2.235   0.159  -2.710  0.00  0.00    +0.000 C 
ENDBRANCH  16  17
ENDBRANCH   1  14
BRANCH   9  19
ATOM     19  C   UNL     1      -3.681   1.136  -2.145  0.00  0.00    +0.000 C 
BRANCH  19  20
ATOM     20  C   UNL     1      -4.630   1.731  -3.167  0.00  0.00    +0.000 C 
BRANCH  20  21
ATOM     21  C   UNL     1      -5.441   2.923  -2.664  0.00  0.00    +0.000 C 
BRANCH  21  22
ATOM     22  N   UNL     1      -6.439   3.277  -3.690  0.00  0.00    +0.000 NA
ATOM     23  C   UNL     1      -5.824   3.895  -4.887  0.00  0.00    +0.000 C 
ATOM     24  C   UNL     1      -5.213   5.271  -4.587  0.00  0.00    +0.000 C 
ATOM     25  O   UNL     1      -6.207   6.169  -4.074  0.00  0.00    +0.000 OA
ATOM     26  C   UNL     1      -6.858   5.633  -2.911  0.00  0.00    +0.000 C 
ATOM     27  C   UNL     1      -7.439   4.233  -3.168  0.00  0.00    +0.000 C 
ENDBRANCH  21  22
ENDBRANCH  20  21
ENDBRANCH  19  20
ENDBRANCH   9  19
TORSDOF 6
