REMARK  Name = 
REMARK  1 active torsions:
REMARK  status: ('A' for Active; 'I' for Inactive)
REMARK    1  A    between atoms: C_2  and  C_15
REMARK                            x       y       z     vdW  Elec       q    Type
REMARK                         _______ _______ _______ _____ _____    ______ ____
ROOT
ATOM      1  O   UNL     1       0.973  -0.266  -0.214  0.00  0.00    +0.000 OA
ATOM      2  C   UNL     1       2.169  -0.112   0.022  0.00  0.00    +0.000 C 
ATOM      3  N   UNL     1       2.788  -0.212   1.246  0.00  0.00    +0.000 N 
ATOM      4  C   UNL     1       2.116  -0.579   2.410  0.00  0.00    +0.000 A 
ATOM      5  N   UNL     1       0.924  -1.168   2.332  0.00  0.00    +0.000 NA
ATOM      6  C   UNL     1       0.303  -1.441   3.484  0.00  0.00    +0.000 A 
ATOM      7  C   UNL     1       0.840  -1.126   4.715  0.00  0.00    +0.000 A 
ATOM      8  C   UNL     1       0.230  -1.338   5.950  0.00  0.00    +0.000 A 
ATOM      9  N   UNL     1      -1.017  -1.957   6.071  0.00  0.00    +0.000 N 
ATOM     10  N   UNL     1       0.821  -1.000   7.096  0.00  0.00    +0.000 NA
ATOM     11  C   UNL     1       2.032  -0.445   6.980  0.00  0.00    +0.000 A 
ATOM     12  N   UNL     1       2.691  -0.207   5.838  0.00  0.00    +0.000 NA
ATOM     13  C   UNL     1       2.096  -0.547   4.700  0.00  0.00    +0.000 A 
ATOM     14  N   UNL     1       2.741  -0.296   3.559  0.00  0.00    +0.000 NA
ATOM     15  H   UNL     1       3.717   0.149   1.397  0.00  0.00    +0.000 HD
ATOM     16  H   UNL     1      -1.738  -1.518   5.509  0.00  0.00    +0.000 HD
ATOM     17  H   UNL     1      -1.268  -1.964   7.057  0.00  0.00    +0.000 HD
ENDROOT
BRANCH   2  18
ATOM     18  C   UNL     1       3.025   0.298  -1.117  0.00  0.00    +0.000 A 
ATOM     19  C   UNL     1       2.461   1.154  -2.079  0.00  0.00    +0.000 A 
ATOM     20  C   UNL     1       3.184   1.505  -3.218  0.00  0.00    +0.000 A 
ATOM     21  C   UNL     1       4.462   0.989  -3.396  0.00  0.00    +0.000 A 
ATOM     22  F   UNL     1       5.150   1.304  -4.502  0.00  0.00    +0.000 F 
ATOM     23  C   UNL     1       5.034   0.139  -2.451  0.00  0.00    +0.000 A 
ATOM     24  C   UNL     1       4.316  -0.210  -1.302  0.00  0.00    +0.000 A 
ENDBRANCH   2  18
TORSDOF 1
